8
	Energy:       0.9619351
C         -0.67082       -0.21052        0.34814
C          0.76387       -0.48844        0.03231
O         -1.00561        0.93383        0.97997
O         -1.53568       -1.01523        0.03585
H          1.35226       -0.51354        0.97308
H          1.16048        0.31286       -0.62534
H          0.87133       -1.46546       -0.48572
H         -1.92592        1.13996        1.19699
