22
	Energy:      -7.8900318
C         -2.14395        0.73542        0.69943
O         -2.20476       -0.29575        1.34604
O         -2.75843        1.87815        1.07544
H         -2.64223        2.64215        0.48238
C         -1.40982        0.89826       -0.56357
C         -0.74135       -0.07292       -1.11741
C         -0.04066       -0.94607       -1.77508
C          0.15306       -2.31532       -1.35628
C          0.89374       -3.15553       -2.09557
C          1.15744       -4.54204       -1.77970
C          1.91383       -5.30418       -2.58573
C          2.22170       -6.69226       -2.33980
C          2.98149       -7.41560       -3.17196
H         -1.42220        1.85968       -1.05577
H          0.43207       -0.62959       -2.70104
H         -0.31781       -2.63876       -0.42960
H          1.34639       -2.78888       -3.01608
H          0.72493       -4.95043       -0.86925
H          2.33602       -4.87255       -3.49204
H          1.81796       -7.15896       -1.44438
H          3.40756       -6.99548       -4.07835
H          3.19691       -8.45834       -2.96180
