17
	Energy:     -21.7747635
C         -2.03361        1.22256        0.37188
O         -2.39444        0.51123        1.29267
O         -2.41474        2.51075        0.24488
H         -2.07809        2.98518       -0.53600
C         -1.14646        0.79441       -0.72029
C         -0.71189       -0.42895       -0.79383
C         -0.31018       -1.55632       -0.89328
C          0.08654       -2.68178       -1.02597
C          0.47566       -3.80484       -1.19661
C          0.85505       -4.92472       -1.40604
C          1.22379       -6.04083       -1.65133
C          1.58254       -7.15321       -1.92637
H         -0.85760        1.50453       -1.48093
C          1.93341       -8.26263       -2.22285
C          2.30753       -9.46014       -2.55649
H          1.90448      -10.32739       -2.04653
H          3.01412       -9.61262       -3.36416
