15
	Energy:     -32.5487046
C         -2.26958        1.84383        0.44724
O         -2.98287        1.72844        1.42860
O         -2.10836        3.01586       -0.19163
H         -2.66843        3.63423        0.32032
C         -1.53633        0.75539       -0.12722
C         -0.20595       -1.39985       -1.15021
C          0.96488       -3.70429       -2.03094
C          1.95905       -6.13518       -2.77968
C          2.79998       -8.65103       -3.43195
C         -0.93873       -0.17711       -0.58973
C          1.42292       -4.75865       -2.37451
C          2.34159       -7.23370       -3.07380
C          3.14453       -9.76751       -3.70472
C          0.32938       -2.39459       -1.55450
H          3.44428      -10.76116       -3.94376
